Program Version,EnergyPlus, Version 9.3.0-60e3a1f2d5 (No OpenGL), YMD=2023.05.25 09:55
1,5,Environment Title[],Latitude[deg],Longitude[deg],Time Zone[],Elevation[m]
2,8,Day of Simulation[],Month[],Day of Month[],DST Indicator[1=yes 0=no],Hour[],StartMinute[],EndMinute[],DayType
3,5,Cumulative Day of Simulation[],Month[],Day of Month[],DST Indicator[1=yes 0=no],DayType  ! When Daily Report Variables Requested
4,2,Cumulative Days of Simulation[],Month[]  ! When Monthly Report Variables Requested
5,1,Cumulative Days of Simulation[] ! When Run Period Report Variables Requested
6,1,Calendar Year of Simulation[] ! When Annual Report Variables Requested
7,1,Environment,Site Outdoor Air Drybulb Temperature [C] !TimeStep
1151,1,EMS,Cooling Controlled Load [] !TimeStep
1152,1,EMS,Heating Controlled Load [] !TimeStep
1153,1,EMS,Cooling Schedule Temperature [] !TimeStep
1154,1,EMS,Heating Schedule Temperature [] !TimeStep
1155,1,EMS,Cooling Setpoint Temperature [] !TimeStep
1156,1,EMS,Heating Setpoint Temperature [] !TimeStep
1157,1,EMS,Cooling Current Temperature [] !TimeStep
1158,1,EMS,Heating Current Temperature [] !TimeStep
1159,1,EMS,Cooling Power State [] !TimeStep
1160,1,EMS,Heating Power State [] !TimeStep
1165,1,EMS,Heating Volume [] !TimeStep
1166,1,EMS,Cooling Volume [] !TimeStep
1167,1,EMS,Indoor Air Temperature [] !TimeStep
1168,1,EMS,Occupant Count [] !TimeStep
2520,1,Whole Building,Facility Total HVAC Electric Demand Power [W] !TimeStep
2521,1,Whole Building,Facility Total Electric Demand Power [W] !TimeStep
2522,1,Facility,Facility Thermal Comfort ASHRAE 55 Simple Model Summer or Winter Clothes Not Comfortable Time [hr] !TimeStep
End of Data Dictionary
1,RUNPERIOD 1,  32.13,-110.95,  -7.00, 777.00
2,1, 7, 1, 1, 1, 0.00, 5.00,Monday
7,30.5
1151,1258.415030476354
1152,0.0
1153,80.6
1154,60.8
1155,80.6
1156,60.8
1157,78.67244018754991
1158,78.67244018754991
1159,1.0
1160,0.0
1165,0.0
1166,1260.0
1167,78.67244018754991
1168,0.0
2522,0.0
2520,0.000007509401302081733
2521,48784.43515679031
2,1, 7, 1, 1, 1, 5.00,10.00,Monday
7,30.400000000000003
1151,0.0
1152,0.0
1153,80.6
1154,60.8
1155,80.6
1156,60.8
1157,79.1806189050678
1158,79.1806189050678
1159,0.0
1160,0.0
1165,0.0
1166,0.0
1167,79.1806189050678
1168,0.0
2522,0.0
2520,0.000007477935502597988
2521,48783.91637451404
2,1, 7, 1, 1, 1,10.00,15.00,Monday
7,30.300000000000006
1151,0.0
1152,0.0
1153,80.6
1154,60.8
1155,80.6
1156,60.8
1157,79.50945786893841
1158,79.50945786893841
1159,0.0
1160,0.0
1165,0.0
1166,0.0
1167,79.50945786893841
1168,0.0
2522,0.0
2520,0.000007454674398124381
2521,48783.37404662101
2,1, 7, 1, 1, 1,15.00,20.00,Monday
7,30.200000000000004
1151,0.0
1152,0.0
1153,80.6
1154,60.8
1155,80.6
1156,60.8
1157,79.7868039611521
1158,79.7868039611521
1159,0.0
1160,0.0
1165,0.0
1166,0.0
1167,79.7868039611521
1168,0.0
2522,0.0
2520,0.000007437782217754122
2521,48782.68465439959
2,1, 7, 1, 1, 1,20.00,25.00,Monday
7,30.099999999999999
1151,0.0
1152,0.0
1153,80.6
1154,60.8
1155,80.61950000000002
1156,60.7805
1157,79.93620522938156
1158,79.93620522938156
1159,0.0
1160,0.0
1165,0.0
1166,0.0
1167,79.93620522938156
1168,0.0
2522,0.0
2520,0.000007426284282729739
2521,48781.59781833478
2,1, 7, 1, 1, 1,25.00,30.00,Monday
7,30.0
1151,0.0
1152,0.0
1153,80.6
1154,60.8
1155,80.47034880748166
1156,60.92965119251835
1157,80.0400400679772
1158,80.0400400679772
1159,0.0
1160,0.0
1165,0.0
1166,0.0
1167,80.0400400679772
1168,0.0
2522,0.0
2520,0.000007419242717055552
2521,48780.440523994104
2,1, 7, 1, 1, 1,30.00,35.00,Monday
7,29.9
1151,0.0
1152,0.0
1153,80.6
1154,60.8
1155,80.51909209541985
1156,60.880907904580158
1157,80.11144201962103
1158,80.11144201962103
1159,0.0
1160,0.0
1165,0.0
1166,0.0
1167,80.11144201962103
1168,0.0
2522,0.0
2520,0.000007415900620691405
2521,48779.23581609316
2,1, 7, 1, 1, 1,35.00,40.00,Monday
7,29.799999999999998
1151,0.0
1152,0.0
1153,80.6
1154,60.8
1155,80.51348191626599
1156,60.88651808373403
1157,80.16016895192959
1158,80.16016895192959
1159,0.0
1160,0.0
1165,0.0
1166,0.0
1167,80.16016895192959
1168,0.0
2522,0.0
2520,0.000007415642404747945
2521,48777.985429865286
2,1, 7, 1, 1, 1,40.00,45.00,Monday
7,29.699999999999997
1151,0.0
1152,0.0
1153,80.6
1154,60.8
1155,80.51181701791262
1156,60.88818298208738
1157,80.1926095346819
1158,80.1926095346819
1159,0.0
1160,0.0
1165,0.0
1166,0.0
1167,80.1926095346819
1168,0.0
2522,0.0
2520,0.000007417964147092688
2521,48776.69170219468
2,1, 7, 1, 1, 1,45.00,50.00,Monday
7,29.599999999999999
1151,0.0
1152,0.0
1153,80.6
1154,60.8
1155,80.52255045499885
1156,60.877449545001159
1157,80.21322032462909
1158,80.21322032462909
1159,0.0
1160,0.0
1165,0.0
1166,0.0
1167,80.21322032462909
1168,0.0
2522,0.0
2520,0.000007422451084749027
2521,48775.356977170515
2,1, 7, 1, 1, 1,50.00,55.00,Monday
7,29.5
1151,0.0
1152,0.0
1153,80.6
1154,60.8
1155,80.51532251393859
1156,60.88467748606142
1157,80.2248278815932
1158,80.2248278815932
1159,0.0
1160,0.0
1165,0.0
1166,0.0
1167,80.2248278815932
1168,0.0
2522,0.0
2520,0.000007428760281963782
2521,48773.98352382099
2,1, 7, 1, 1, 1,55.00,60.00,Monday
7,29.4
1151,0.0
1152,0.0
1153,80.6
1154,60.8
1155,80.51186994427482
1156,60.88813005572517
1157,80.22965260349584
1158,80.22965260349584
1159,0.0
1160,0.0
1165,0.0
1166,0.0
1167,80.22965260349584
1168,0.0
2522,0.0
2520,0.00000743660711437741
2521,48772.09329346495
2,1, 7, 1, 1, 2, 0.00, 5.00,Monday
7,29.291666666666666
1151,0.0
1152,0.0
1153,80.6
1154,60.8
1155,80.51138684104824
1156,60.88861315895177
1157,80.22934013202854
1158,80.22934013202854
1159,0.0
1160,0.0
1165,0.0
1166,0.0
1167,80.22934013202854
1168,0.0
2522,0.0
2520,0.0000074457546099487289
2521,48770.05968673335
2,1, 7, 1, 1, 2, 5.00,10.00,Monday
7,29.183333333333335
1151,0.0
1152,0.0
1153,80.6
1154,60.8
1155,80.51014696646269
1156,60.88985303353731
1157,80.2249916705043
1158,80.2249916705043
1159,0.0
1160,0.0
1165,0.0
1166,0.0
1167,80.2249916705043
1168,0.0
2522,0.0
2520,0.000007456004958565876
2521,48767.98828207154
2,1, 7, 1, 1, 2,10.00,15.00,Monday
7,29.074999999999997
1151,0.0
1152,0.0
1153,80.6
1154,60.8
1155,80.51387153247794
1156,60.886128467522087
1157,80.21743915572505
1158,80.21743915572505
1159,0.0
1160,0.0
1165,0.0
1166,0.0
1167,80.21743915572505
1168,0.0
2522,0.0
2520,0.000007467192689273442
2521,48765.91520399306
2,1, 7, 1, 1, 2,15.00,20.00,Monday
7,28.96666666666667
1151,0.0
1152,0.0
1153,80.6
1154,60.8
1155,80.50379382723654
1156,60.89620617276347
1157,80.20734202563742
1158,80.20734202563742
1159,0.0
1160,0.0
1165,0.0
1166,0.0
1167,80.20734202563742
1168,0.0
2522,0.0
2520,0.000007479179144984132
2521,48763.840233692565
2,1, 7, 1, 1, 2,20.00,25.00,Monday
7,28.858333333333336
1151,0.0
1152,0.0
1153,80.6
1154,60.8
1155,80.50233710231731
1156,60.89766289768267
1157,80.19509344136867
1158,80.19509344136867
1159,0.0
1160,0.0
1165,0.0
1166,0.0
1167,80.19509344136867
1168,0.0
2522,0.0
2520,0.000007491847977585722
2521,48761.76320998372
2,1, 7, 1, 1, 2,25.00,30.00,Monday
7,28.75
1151,0.0
1152,0.0
1153,80.6
1154,60.8
1155,80.51592186529359
1156,60.88407813470641
1157,80.18100774283458
1158,80.18100774283458
1159,0.0
1160,0.0
1165,0.0
1166,0.0
1167,80.18100774283458
1168,0.0
2522,0.0
2520,0.00000750510145337939
2521,48759.68398061377
2,1, 7, 1, 1, 2,30.00,35.00,Monday
7,28.641666666666667
1151,0.0
1152,0.0
1153,80.6
1154,60.8
1155,80.51247663007246
1156,60.88752336992755
1157,80.16528700287967
1158,80.16528700287967
1159,0.0
1160,0.0
1165,0.0
1166,0.0
1167,80.16528700287967
1168,0.0
2522,0.0
2520,0.000007518857407694994
2521,48757.602442750984
2,1, 7, 1, 1, 2,35.00,40.00,Monday
7,28.533333333333336
1151,0.0
1152,0.0
1153,80.6
1154,60.8
1155,80.50819257047125
1156,60.89180742952876
1157,80.14815089083783
1158,80.14815089083783
1159,0.0
1160,0.0
1165,0.0
1166,0.0
1167,80.14815089083783
1168,0.0
2522,0.0
2520,0.000007533046723674465
2521,48755.51852351538
2,1, 7, 1, 1, 2,40.00,45.00,Monday
7,28.425000000000006
1151,0.0
1152,0.0
1153,80.6
1154,60.8
1155,80.51247099009697
1156,60.88752900990302
1157,80.1297138548648
1158,80.1297138548648
1159,0.0
1160,0.0
1165,0.0
1166,0.0
1167,80.1297138548648
1168,0.0
2522,0.0
2520,0.0000075476112372491309
2521,48753.432201515876
2,1, 7, 1, 1, 2,45.00,50.00,Monday
7,28.316666666666668
1151,0.0
1152,0.0
1153,80.6
1154,60.8
1155,80.5019297715156
1156,60.89807022848439
1157,80.11012503227956
1158,80.11012503227956
1159,0.0
1160,0.0
1165,0.0
1166,0.0
1167,80.11012503227956
1168,0.0
2522,0.0
2520,0.000007562501990788785
2521,48751.3434540273
2,1, 7, 1, 1, 2,50.00,55.00,Monday
7,28.208333333333337
1151,0.0
1152,0.0
1153,80.6
1154,60.8
1155,80.50559239049108
1156,60.894407609508949
1157,80.08945705511816
1158,80.08945705511816
1159,0.0
1160,0.0
1165,0.0
1166,0.0
1167,80.08945705511816
1168,0.0
2522,0.0
2520,0.000007565666522304715
2521,48749.2523413659
2,1, 7, 1, 1, 2,55.00,60.00,Monday
7,28.1
1151,0.0
1152,0.0
1153,80.6
1154,60.8
1155,80.51034307862045
1156,60.88965692137954
1157,80.06782074943593
1158,80.06782074943593
1159,0.0
1160,0.0
1165,0.0
1166,0.0
1167,80.06782074943593
1168,0.0
2522,0.0
2520,0.000007540598072497851
2521,48747.15887087385
2,1, 7, 1, 1, 3, 0.00, 5.00,Monday
7,28.0
1151,0.0
1152,0.0
1153,80.6
1154,60.8
1155,80.50501115001689
1156,60.89498884998311
1157,80.0452675369888
1158,80.0452675369888
1159,0.0
1160,0.0
1165,0.0
1166,0.0
1167,80.0452675369888
1168,0.0
2522,0.0
2520,0.000007504693867434263
2521,48745.18232387244
2,1, 7, 1, 1, 3, 5.00,10.00,Monday
7,27.9
1151,0.0
1152,0.0
1153,80.6
1154,60.8
1155,80.5194255759497
1156,60.880574424050298
1157,80.02207564575198
1158,80.02207564575198
1159,0.0
1160,0.0
1165,0.0
1166,0.0
1167,80.02207564575198
1168,0.0
2522,0.0
2520,0.0000074776901930860808
2521,48743.20514506775
2,1, 7, 1, 1, 3,10.00,15.00,Monday
7,27.800000000000006
1151,0.0
1152,0.0
1153,80.6
1154,60.8
1155,80.50719648182298
1156,60.89280351817702
1157,79.99822471081228
1158,79.99822471081228
1159,0.0
1160,0.0
1165,0.0
1166,0.0
1167,79.99822471081228
1168,0.0
2522,0.0
2520,0.000007457919066936342
2521,48741.22694456276
2,1, 7, 1, 1, 3,15.00,20.00,Monday
7,27.700000000000004
1151,0.0
1152,0.0
1153,80.6
1154,60.8
1155,80.50121070002993
1156,60.898789299970079
1157,79.97374542039509
1158,79.97374542039509
1159,0.0
1160,0.0
1165,0.0
1166,0.0
1167,79.97374542039509
1168,0.0
2522,0.0
2520,0.000007444069180222842
2521,48739.24743812681
2,1, 7, 1, 1, 3,20.00,25.00,Monday
7,27.6
1151,0.0
1152,0.0
1153,80.6
1154,60.8
1155,80.50389931454245
1156,60.89610068545757
1157,79.94865026112723
1158,79.94865026112723
1159,0.0
1160,0.0
1165,0.0
1166,0.0
1167,79.94865026112723
1168,0.0
2522,0.0
2520,0.000007435097300183711
2521,48737.266731940974
2,1, 7, 1, 1, 3,25.00,30.00,Monday
7,27.5
1151,0.0
1152,0.0
1153,80.6
1154,60.8
1155,80.51336416136275
1156,60.88663583863727
1157,79.92298264044024
1158,79.92298264044024
1159,0.0
1160,0.0
1165,0.0
1166,0.0
1167,79.92298264044024
1168,0.0
2522,0.0
2520,0.000007430165136259194
2521,48735.28476093172
2,1, 7, 1, 1, 3,30.00,35.00,Monday
7,27.4
1151,0.0
1152,0.0
1153,80.6
1154,60.8
1155,80.51422313490534
1156,60.885776865094658
1157,79.89647501130547
1158,79.89647501130547
1159,0.0
1160,0.0
1165,0.0
1166,0.0
1167,79.89647501130547
1168,0.0
2522,0.0
2520,0.000007428593402683311
2521,48733.293316566305
2,1, 7, 1, 1, 3,35.00,40.00,Monday
7,27.299999999999998
1151,0.0
1152,0.0
1153,80.6
1154,60.8
1155,80.50750403174692
1156,60.8924959682531
1157,79.86973567733318
1158,79.86973567733318
1159,0.0
1160,0.0
1165,0.0
1166,0.0
1167,79.86973567733318
1168,0.0
2522,0.0
2520,0.0000074298277658529679
2521,48731.30563744544
2,1, 7, 1, 1, 3,40.00,45.00,Monday
7,27.199999999999997
1151,0.0
1152,0.0
1153,80.6
1154,60.8
1155,80.50083049964536
1156,60.899169500354648
1157,79.84252089487097
1158,79.84252089487097
1159,0.0
1160,0.0
1165,0.0
1166,0.0
1167,79.84252089487097
1168,0.0
2522,0.0
2520,0.000007433413178320831
2521,48729.31891728584
2,1, 7, 1, 1, 3,45.00,50.00,Monday
7,27.1
1151,0.0
1152,0.0
1153,80.6
1154,60.8
1155,80.50272500553037
1156,60.897274994469629
1157,79.81482709454902
1158,79.81482709454902
1159,0.0
1160,0.0
1165,0.0
1166,0.0
1167,79.81482709454902
1168,0.0
2522,0.0
2520,0.000007438974243812952
2521,48727.33086787944
2,1, 7, 1, 1, 3,50.00,55.00,Monday
7,27.0
1151,0.0
1152,0.0
1153,80.6
1154,60.8
1155,80.50244310123506
1156,60.89755689876495
1157,79.78667408960823
1158,79.78667408960823
1159,0.0
1160,0.0
1165,0.0
1166,0.0
1167,79.78667408960823
1168,0.0
2522,0.0
2520,0.000007446199994805142
2521,48725.34161406015
2,1, 7, 1, 1, 3,55.00,60.00,Monday
7,26.9
1151,0.0
1152,0.0
1153,80.6
1154,60.8
1155,80.50622603892319
1156,60.8937739610768
1157,79.75810234853808
1158,79.75810234853808
1159,0.0
1160,0.0
1165,0.0
1166,0.0
1167,79.75810234853808
1168,0.0
2522,0.0
2520,0.000007454831950079049
2521,48723.351001363284
2,1, 7, 1, 1, 4, 0.00, 5.00,Monday
7,26.791666666666666
1151,0.0
1152,0.0
1153,80.6
1154,60.8
1155,80.51918588823034
1156,60.880814111769669
1157,79.72912149763858
1158,79.72912149763858
1159,0.0
1160,0.0
1165,0.0
1166,0.0
1167,79.72912149763858
1168,0.0
2522,0.0
2520,0.000007464654646108198
2521,49015.25165203525
2,1, 7, 1, 1, 4, 5.00,10.00,Monday
7,26.683333333333335
1151,0.0
1152,0.0
1153,80.6
1154,60.8
1155,80.51001990003869
1156,60.88998009996133
1157,79.69959410586776
1158,79.69959410586776
1159,0.0
1160,0.0
1165,0.0
1166,0.0
1167,79.69959410586776
1168,0.0
2522,0.0
2520,0.000007475488059387831
2521,49012.637567376616
2,1, 7, 1, 1, 4,10.00,15.00,Monday
7,26.574999999999997
1151,0.0
1152,0.0
1153,80.6
1154,60.8
1155,80.511395935649
1156,60.88860406435101
1157,79.66960182601369
1158,79.66960182601369
1159,0.0
1160,0.0
1165,0.0
1166,0.0
1167,79.66960182601369
1168,0.0
2522,0.0
2520,0.000007487181492010525
2521,49010.02079233622
2,1, 7, 1, 1, 4,15.00,20.00,Monday
7,26.46666666666667
1151,0.0
1152,0.0
1153,80.6
1154,60.8
1155,80.50358140444559
1156,60.896418595554418
1157,79.63905226369892
1158,79.63905226369892
1159,0.0
1160,0.0
1165,0.0
1166,0.0
1167,79.63905226369892
1168,0.0
2522,0.0
2520,0.000007499608602292027
2521,49007.397811137416
2,1, 7, 1, 1, 4,20.00,25.00,Monday
7,26.358333333333336
1151,0.0
1152,0.0
1153,80.6
1154,60.8
1155,80.50012554368087
1156,60.89987445631914
1157,79.60823197036425
1158,79.60823197036425
1159,0.0
1160,0.0
1165,0.0
1166,0.0
1167,79.60823197036425
1168,0.0
2522,0.0
2520,0.000007512663340628135
2521,49004.7756492365
2,1, 7, 1, 1, 4,25.00,30.00,Monday
7,26.25
1151,0.0
1152,0.0
1153,80.6
1154,60.8
1155,80.50153024198142
1156,60.898469758018567
1157,79.5769513782696
1158,79.5769513782696
1159,0.0
1160,0.0
1165,0.0
1166,0.0
1167,79.5769513782696
1168,0.0
2522,0.0
2520,0.0000075262566076157189
2521,49002.14871565624
2,1, 7, 1, 1, 4,30.00,35.00,Monday
7,26.141666666666667
1151,0.0
1152,0.0
1153,80.6
1154,60.8
1155,80.50573398738583
1156,60.89426601261417
1157,79.54545965655528
1158,79.54545965655528
1159,0.0
1160,0.0
1165,0.0
1166,0.0
1167,79.54545965655528
1168,0.0
2522,0.0
2520,0.000007540313493234421
2521,48999.52282124875
2,1, 7, 1, 1, 4,35.00,40.00,Monday
7,26.03333333333333
1151,0.0
1152,0.0
1153,80.6
1154,60.8
1155,80.51709801443337
1156,60.88290198556663
1157,79.51356832614488
1158,79.51356832614488
1159,0.0
1160,0.0
1165,0.0
1166,0.0
1167,79.51356832614488
1168,0.0
2522,0.0
2520,0.000007554770986949897
2521,48996.892464884615
2,1, 7, 1, 1, 4,40.00,45.00,Monday
7,25.925000000000006
1151,0.0
1152,0.0
1153,80.6
1154,60.8
1155,80.50353777648746
1156,60.89646222351256
1157,79.4813575826349
1158,79.4813575826349
1159,0.0
1160,0.0
1165,0.0
1166,0.0
1167,79.4813575826349
1168,0.0
2522,0.0
2520,0.00000756957607196895
2521,48994.2597651062
2,1, 7, 1, 1, 4,45.00,50.00,Monday
7,25.81666666666667
1151,0.0
1152,0.0
1153,80.6
1154,60.8
1155,80.5128618589223
1156,60.8871381410777
1157,79.44886952504879
1158,79.44886952504879
1159,0.0
1160,0.0
1165,0.0
1166,0.0
1167,79.44886952504879
1168,0.0
2522,0.0
2520,0.000007560233705437452
2521,48991.62592728812
2,1, 7, 1, 1, 4,50.00,55.00,Monday
7,25.708333333333337
1151,0.0
1152,0.0
1153,80.6
1154,60.8
1155,80.49977299930348
1156,60.90022700069652
1157,79.41612667682796
1158,79.41612667682796
1159,0.0
1160,0.0
1165,0.0
1166,0.0
1167,79.41612667682796
1168,0.0
2522,0.0
2520,0.000007525600575170011
2521,48988.99106095598
2,1, 7, 1, 1, 4,55.00,60.00,Monday
7,25.6
1151,0.0
1152,0.0
1153,80.6
1154,60.8
1155,80.50150201412339
1156,60.8984979858766
1157,79.38314118086115
1158,79.38314118086115
1159,0.0
1160,0.0
1165,0.0
1166,0.0
1167,79.38314118086115
1168,0.0
2522,0.0
2520,0.0000074933806391469638
2521,48986.354964675564
2,1, 7, 1, 1, 5, 0.00, 5.00,Monday
7,25.5
1151,0.0
1152,0.0
1153,80.6
1154,60.8
1155,80.50925749679698
1156,60.89074250320303
1157,79.34992701517195
1158,79.34992701517195
1159,0.0
1160,0.0
1165,0.0
1166,0.0
1167,79.34992701517195
1168,0.0
2522,0.0
2520,0.000007469363850123844
2521,48965.44610274982
2,1, 7, 1, 1, 5, 5.00,10.00,Monday
7,25.400000000000003
1151,0.0
1152,0.0
1153,80.6
1154,60.8
1155,80.5020300773096
1156,60.89796992269041
1157,79.31680154993066
1158,79.31680154993066
1159,0.0
1160,0.0
1165,0.0
1166,0.0
1167,79.31680154993066
1168,0.0
2522,0.0
2520,0.000007452033391543615
2521,48963.00025537172
2,1, 7, 1, 1, 5,10.00,15.00,Monday
7,25.300000000000006
1151,0.0
1152,0.0
1153,80.6
1154,60.8
1155,80.5018056394131
1156,60.8981943605869
1157,79.28368157426442
1158,79.28368157426442
1159,0.0
1160,0.0
1165,0.0
1166,0.0
1167,79.28368157426442
1168,0.0
2522,0.0
2520,0.000007440190980172903
2521,48960.55508449772
2,1, 7, 1, 1, 5,15.00,20.00,Monday
7,25.200000000000004
1151,0.0
1152,0.0
1153,80.6
1154,60.8
1155,80.5150621951146
1156,60.8849378048854
1157,79.25051350887921
1158,79.25051350887921
1159,0.0
1160,0.0
1165,0.0
1166,0.0
1167,79.25051350887921
1168,0.0
2522,0.0
2520,0.000007432879399489343
2521,48958.110012539364
2,1, 7, 1, 1, 5,20.00,25.00,Monday
7,25.099999999999999
1151,0.0
1152,0.0
1153,80.6
1154,60.8
1155,80.5149821952484
1156,60.885017804751608
1157,79.21724566925409
1158,79.21724566925409
1159,0.0
1160,0.0
1165,0.0
1166,0.0
1167,79.21724566925409
1168,0.0
2522,0.0
2520,0.00000742932683206388
2521,48955.66506972987
2,1, 7, 1, 1, 5,25.00,30.00,Monday
7,25.0
1151,0.0
1152,0.0
1153,80.6
1154,60.8
1155,80.50097003042024
1156,60.89902996957976
1157,79.18386974298507
1158,79.18386974298507
1159,0.0
1160,0.0
1165,0.0
1166,0.0
1167,79.18386974298507
1168,0.0
2522,0.0
2520,0.000007428906050646483
2521,48953.21997946423
2,1, 7, 1, 1, 5,30.00,35.00,Monday
7,24.9
1151,0.0
1152,0.0
1153,80.6
1154,60.8
1155,80.50082466922211
1156,60.899175330777897
1157,79.15038651439224
1158,79.15038651439224
1159,0.0
1160,0.0
1165,0.0
1166,0.0
1167,79.15038651439224
1168,0.0
2522,0.0
2520,0.0000074311039643895909
2521,48950.77490504136
2,1, 7, 1, 1, 5,35.00,40.00,Monday
7,24.8
1151,0.0
1152,0.0
1153,80.6
1154,60.8
1155,80.50789876729349
1156,60.89210123270652
1157,79.11678907831963
1158,79.11678907831963
1159,0.0
1160,0.0
1165,0.0
1166,0.0
1167,79.11678907831963
1168,0.0
2522,0.0
2520,0.000007435498527692609
2521,48948.329649356245
2,1, 7, 1, 1, 5,40.00,45.00,Monday
7,24.699999999999997
1151,0.0
1152,0.0
1153,80.6
1154,60.8
1155,80.5069241915924
1156,60.893075808407598
1157,79.0830834682136
1158,79.0830834682136
1159,0.0
1160,0.0
1165,0.0
1166,0.0
1167,79.0830834682136
1168,0.0
2522,0.0
2520,0.0000074417409802594799
2521,48945.884407033576
2,1, 7, 1, 1, 5,45.00,50.00,Monday
7,24.599999999999999
1151,0.0
1152,0.0
1153,80.6
1154,60.8
1155,80.50194903694779
1156,60.8980509630522
1157,79.0492677678215
1158,79.0492677678215
1159,0.0
1160,0.0
1165,0.0
1166,0.0
1167,79.0492677678215
1168,0.0
2522,0.0
2520,0.000007449542012427525
2521,48943.43900886404
2,1, 7, 1, 1, 5,50.00,55.00,Monday
7,24.499999999999998
1151,0.0
1152,0.0
1153,80.6
1154,60.8
1155,80.50052963999733
1156,60.89947036000268
1157,79.01534821529634
1158,79.01534821529634
1159,0.0
1160,0.0
1165,0.0
1166,0.0
1167,79.01534821529634
1168,0.0
2522,0.0
2520,0.000007458660865220716
2521,48940.99365283199
2,1, 7, 1, 1, 5,55.00,60.00,Monday
7,24.4
1151,0.0
1152,0.0
1153,80.6
1154,60.8
1155,80.5007087507989
1156,60.8992912492011
1157,78.98132362852499
1158,78.98132362852499
1159,0.0
1160,0.0
1165,0.0
1166,0.0
1167,78.98132362852499
1168,0.0
2522,0.0
2520,0.000007468896655669533
2521,48938.54818282244
2,1, 7, 1, 1, 6, 0.00, 5.00,Monday
7,24.30833333333333
1151,0.0
1152,0.0
1153,80.6
1154,60.8
1155,80.506362918493
1156,60.893637081506998
1157,78.94720192447825
1158,78.94720192447825
1159,0.0
1160,0.0
1165,0.0
1166,0.0
1167,78.94720192447825
1168,0.0
2522,0.0
2520,30404.690369179596
2521,79903.79492888603
2,1, 7, 1, 1, 6, 5.00,10.00,Monday
7,24.216666666666666
1151,11389.126785350883
1152,0.0
1153,80.6
1154,60.8
1155,80.50626018630806
1156,60.893739813691947
1157,77.96405869940256
1158,77.96405869940256
1159,1.0
1160,0.0
1165,672.0
1166,26812.0
1167,77.96405869940256
1168,0.0
2522,0.0
2520,30259.626715738366
2521,79727.68868646396
2,1, 7, 1, 1, 6,10.00,15.00,Monday
7,24.124999999999998
1151,11302.742416669871
1152,0.0
1153,80.6
1154,60.8
1155,80.50292866691425
1156,60.89707133308577
1157,77.03018485236234
1158,77.03018485236234
1159,1.0
1160,0.0
1165,672.0
1166,26812.0
1167,77.03018485236234
1168,0.0
2522,0.0
2520,30141.455732922972
2521,79563.35129422456
2,1, 7, 1, 1, 6,15.00,20.00,Monday
7,24.033333333333336
1151,11243.65692525016
1152,0.0
1153,80.6
1154,60.8
1155,80.50025446649052
1156,60.89974553350949
1157,76.4483362066926
1158,76.4483362066926
1159,1.0
1160,0.0
1165,672.0
1166,26812.0
1167,76.4483362066926
1168,0.0
2522,0.0
2520,30022.53931628947
2521,79424.24565868819
2,1, 7, 1, 1, 6,20.00,25.00,Monday
7,23.941666666666664
1151,22368.39743435793
1152,0.0
1153,80.6
1154,60.8
1155,80.50419954365526
1156,60.895800456344748
1157,76.00916069208235
1158,76.00916069208235
1159,1.0
1160,0.0
1165,672.0
1166,26812.0
1167,76.00916069208235
1168,0.0
2522,0.0
2520,29902.835334762665
2521,70717.7699516538
2,1, 7, 1, 1, 6,25.00,30.00,Monday
7,23.85
1151,22248.69345281735
1152,0.0
1153,80.6
1154,60.8
1155,80.51561193773682
1156,60.88438806226318
1157,75.7843520540389
1158,75.7843520540389
1159,1.0
1160,0.0
1165,672.0
1166,26812.0
1167,75.7843520540389
1168,0.0
2522,0.0
2520,29782.358857882577
2521,70589.4673360996
2,1, 7, 1, 1, 6,30.00,35.00,Monday
7,23.758333333333334
1151,22128.216975923056
1152,0.0
1153,80.6
1154,60.8
1155,80.50782705999902
1156,60.89217294000099
1157,75.62346486147163
1158,75.62346486147163
1159,1.0
1160,0.0
1165,672.0
1166,26812.0
1167,75.62346486147163
1168,0.0
2522,0.0
2520,29661.111344750523
2521,70462.88916030567
2,1, 7, 1, 1, 6,35.00,40.00,Monday
7,23.666666666666669
1151,22006.9694627764
1152,0.0
1153,80.6
1154,60.8
1155,80.5202216845469
1156,60.87977831545309
1157,75.49910908440482
1158,75.49910908440482
1159,1.0
1160,0.0
1165,672.0
1166,26812.0
1167,75.49910908440482
1168,0.0
2522,0.0
2520,29539.093053021643
2521,70336.98687719763
2,1, 7, 1, 1, 6,40.00,45.00,Monday
7,23.575000000000004
1151,21884.951171038214
1152,0.0
1153,80.6
1154,60.8
1155,80.52155227517734
1156,60.878447724822667
1157,75.39974904561373
1158,75.39974904561373
1159,1.0
1160,0.0
1165,672.0
1166,26812.0
1167,75.39974904561373
1168,0.0
2522,0.0
2520,29416.29411065743
2521,70211.1940844352
2,1, 7, 1, 1, 6,45.00,50.00,Monday
7,23.483333333333336
1151,21762.152228694384
1152,0.0
1153,80.6
1154,60.8
1155,80.52892583387649
1156,60.871074166123509
1157,75.31623138734685
1158,75.31623138734685
1159,1.0
1160,0.0
1165,672.0
1166,26812.0
1167,75.31623138734685
1168,0.0
2522,0.0
2520,29292.72537367883
2521,70085.15865368823
2,1, 7, 1, 1, 6,50.00,55.00,Monday
7,23.39166666666667
1151,21638.58349175382
1152,0.0
1153,80.6
1154,60.8
1155,80.52746841247938
1156,60.872531587520629
1157,75.24518492271831
1158,75.24518492271831
1159,1.0
1160,0.0
1165,672.0
1166,26812.0
1167,75.24518492271831
1168,0.0
2522,0.0
2520,29168.373838142747
2521,69958.66338812968
2,1, 7, 1, 1, 6,55.00,60.00,Monday
7,23.3
1151,21514.23195624647
1152,0.0
1153,80.6
1154,60.8
1155,80.52724827834206
1156,60.872751721657959
1157,75.182707374561
1158,75.182707374561
1159,1.0
1160,0.0
1165,672.0
1166,26812.0
1167,75.182707374561
1168,0.0
2522,0.0
2520,29043.244534385012
2521,69831.56290049777
2,1, 7, 1, 1, 7, 0.00, 5.00,Monday
7,23.533333333333336
1151,21389.102652509908
1152,0.0
1153,80.6
1154,60.8
1155,80.52591686877058
1156,60.87408313122941
1157,75.12685497386458
1158,75.12685497386458
1159,1.0
1160,0.0
1165,672.0
1166,26812.0
1167,75.12685497386458
1168,0.0
2522,0.0
2520,35102.97973303836
2521,75801.93898559097
2,1, 7, 1, 1, 7, 5.00,10.00,Monday
7,23.766666666666667
1151,12487.33662559096
1152,0.0
1153,76.56119924319605
1154,67.53133459467327
1155,76.48593287250287
1156,67.60660096536643
1157,74.85422850382798
1158,74.85422850382798
1159,1.0
1160,0.0
1165,672.0
1166,26812.0
1167,74.85422850382798
1168,0.0
2522,0.0
2520,33628.16349551651
2521,74324.78375435173
2,1, 7, 1, 1, 7,10.00,15.00,Monday
7,24.0
1151,25821.53028583729
1152,111.39384737093065
1153,76.56119924319605
1154,67.53133459467327
1155,76.49454063186747
1156,67.59799320600185
1157,74.78570452576231
1158,74.78570452576231
1159,1.0
1160,1.0
1165,672.0
1166,26812.0
1167,74.78570452576231
1168,0.0
2522,0.0
2520,34323.64819809277
2521,75020.93801006185
2,1, 7, 1, 1, 7,15.00,20.00,Monday
7,24.233333333333336
1151,26537.26453363734
1152,75.49197366776717
1153,76.56119924319605
1154,67.53133459467327
1155,76.48522414919597
1156,67.60730968867333
1157,74.74648129634102
1158,74.74648129634102
1159,1.0
1160,1.0
1165,672.0
1166,26812.0
1167,74.74648129634102
1168,0.0
2522,0.0
2520,34958.50148012441
2521,75659.2643766409
2,1, 7, 1, 1, 7,20.00,25.00,Monday
7,24.46666666666667
1151,27241.59446390806
1152,0.0
1153,76.56119924319605
1154,67.53133459467327
1155,76.48959744784996
1156,67.60293639001934
1157,74.71299000332817
1158,74.71299000332817
1159,1.0
1160,0.0
1165,672.0
1166,26812.0
1167,74.71299000332817
1168,0.0
2522,0.0
2520,35698.31878250183
2521,76403.04272730038
2,1, 7, 1, 1, 7,25.00,30.00,Monday
7,24.700000000000004
1151,27971.118857257312
1152,0.0
1153,76.56119924319605
1154,67.53133459467327
1155,76.49270451033377
1156,67.59982932753556
1157,74.68212013997368
1158,74.68212013997368
1159,1.0
1160,0.0
1165,672.0
1166,26812.0
1167,74.68212013997368
1168,0.0
2522,0.0
2520,36481.53629129204
2521,77190.83770205369
2,1, 7, 1, 1, 7,30.00,35.00,Monday
7,24.933333333333335
1151,28740.174337252738
1152,0.0
1153,76.56119924319605
1154,67.53133459467327
1155,76.48855469008558
1156,67.60397914778372
1157,74.65198016146977
1158,74.65198016146977
1159,1.0
1160,0.0
1165,672.0
1166,26812.0
1167,74.65198016146977
1168,0.0
2522,0.0
2520,37212.91251172059
2521,77926.98953969566
2,1, 7, 1, 1, 7,35.00,40.00,Monday
7,25.166666666666666
1151,29464.069310384795
1152,0.0
1153,76.56119924319605
1154,67.53133459467327
1155,76.4892520871793
1156,67.60328175069
1157,74.62436955464657
1158,74.62436955464657
1159,1.0
1160,0.0
1165,672.0
1166,26812.0
1167,74.62436955464657
1168,0.0
2522,0.0
2520,37955.815798022006
2521,78674.64709073075
2,1, 7, 1, 1, 7,40.00,45.00,Monday
7,25.400000000000003
1151,30198.264128890838
1152,0.0
1153,76.56119924319605
1154,67.53133459467327
1155,76.48838649728953
1156,67.60414734057977
1157,74.59811604730403
1158,74.59811604730403
1159,1.0
1160,0.0
1165,672.0
1166,26812.0
1167,74.59811604730403
1168,0.0
2522,0.0
2520,38678.07972790527
2521,79401.67358894611
2,1, 7, 1, 1, 7,45.00,50.00,Monday
7,25.633333333333338
1151,30914.626820140995
1152,0.0
1153,76.56119924319605
1154,67.53133459467327
1155,76.49349105092246
1156,67.59904278694686
1157,74.57457731602344
1158,74.57457731602344
1159,1.0
1160,0.0
1165,672.0
1166,26812.0
1167,74.57457731602344
1168,0.0
2522,0.0
2520,39387.943063646664
2521,80116.30172344277
2,1, 7, 1, 1, 7,50.00,55.00,Monday
7,25.866666666666668
1151,31620.043076496895
1152,0.0
1153,76.56119924319605
1154,67.53133459467327
1155,76.50548249804635
1156,67.58705133982297
1157,74.55425418687801
1158,74.55425418687801
1159,1.0
1160,0.0
1165,672.0
1166,26812.0
1167,74.55425418687801
1168,0.0
2522,0.0
2520,40180.792606028976
2521,80913.94542442436
2,1, 7, 1, 1, 7,55.00,60.00,Monday
7,26.1
1151,32398.64213461985
1152,0.0
1153,76.56119924319605
1154,67.53133459467327
1155,76.50041030591612
1156,67.5921235319532
1157,74.53236384667267
1158,74.53236384667267
1159,1.0
1160,0.0
1165,672.0
1166,26812.0
1167,74.53236384667267
1168,0.0
2522,0.0
2520,40887.34660294791
2521,81625.33613378168
2,1, 7, 1, 1, 8, 0.00, 5.00,Monday
7,26.375
1151,33102.4965538248
1152,0.0
1153,76.56119924319605
1154,67.53133459467327
1155,76.51287367979579
1156,67.57966015807352
1157,74.51535462147479
1158,74.51535462147479
1159,1.0
1160,0.0
1165,672.0
1166,26812.0
1167,74.51535462147479
1168,0.0
2522,0.0
2520,44711.10620236522
2521,133674.50291811038
2,1, 7, 1, 1, 8, 5.00,10.00,Monday
7,26.650000000000003
1151,18431.44932167572
1152,0.0
1153,76.56119924319605
1154,67.53133459467327
1155,76.50898235566709
1156,67.58355148220224
1157,74.78407537559157
1158,74.78407537559157
1159,1.0
1160,0.0
1165,672.0
1166,26812.0
1167,74.78407537559157
1168,216.58844050947497
2522,0.0
2520,48021.534775112945
2521,136998.6900045199
2,1, 7, 1, 1, 8,10.00,15.00,Monday
7,26.925000000000006
1151,39291.81905492118
1152,0.0
1153,76.56119924319605
1154,67.53133459467327
1155,76.48796209103885
1156,67.60457174683045
1157,74.92100108222496
1158,74.92100108222496
1159,1.0
1160,0.0
1165,672.0
1166,26812.0
1167,74.92100108222496
1168,216.58844050947497
2522,0.0
2520,49331.85553715009
2521,138318.36397920317
2,1, 7, 1, 1, 8,15.00,20.00,Monday
7,27.200000000000004
1151,40509.90016643419
1152,0.0
1153,76.56119924319605
1154,67.53133459467327
1155,76.49030239755878
1156,67.60223144031053
1157,74.95571333946913
1158,74.95571333946913
1159,1.0
1160,0.0
1165,672.0
1166,26812.0
1167,74.95571333946913
1168,216.58844050947497
2522,0.0
2520,50502.133976347206
2521,139495.9972647298
2,1, 7, 1, 1, 8,20.00,25.00,Monday
7,27.475
1151,41621.91406052739
1152,0.0
1153,76.56119924319605
1154,67.53133459467327
1155,76.4914065071584
1156,67.60112733071091
1157,74.97788593345368