Program Version,EnergyPlus, Version 9.3.0-60e3a1f2d5 (No OpenGL), YMD=2023.05.25 03:54
1,5,Environment Title[],Latitude[deg],Longitude[deg],Time Zone[],Elevation[m]
2,8,Day of Simulation[],Month[],Day of Month[],DST Indicator[1=yes 0=no],Hour[],StartMinute[],EndMinute[],DayType
3,5,Cumulative Day of Simulation[],Month[],Day of Month[],DST Indicator[1=yes 0=no],DayType  ! When Daily Report Variables Requested
4,2,Cumulative Days of Simulation[],Month[]  ! When Monthly Report Variables Requested
5,1,Cumulative Days of Simulation[] ! When Run Period Report Variables Requested
6,1,Calendar Year of Simulation[] ! When Annual Report Variables Requested
7,1,Environment,Site Outdoor Air Drybulb Temperature [C] !TimeStep
1151,1,EMS,Cooling Controlled Load [] !TimeStep
1152,1,EMS,Heating Controlled Load [] !TimeStep
1153,1,EMS,Cooling Schedule Temperature [] !TimeStep
1154,1,EMS,Heating Schedule Temperature [] !TimeStep
1155,1,EMS,Cooling Setpoint Temperature [] !TimeStep
1156,1,EMS,Heating Setpoint Temperature [] !TimeStep
1157,1,EMS,Cooling Current Temperature [] !TimeStep
1158,1,EMS,Heating Current Temperature [] !TimeStep
1159,1,EMS,Cooling Power State [] !TimeStep
1160,1,EMS,Heating Power State [] !TimeStep
1165,1,EMS,Heating Volume [] !TimeStep
1166,1,EMS,Cooling Volume [] !TimeStep
1167,1,EMS,Indoor Air Temperature [] !TimeStep
1168,1,EMS,Occupant Count [] !TimeStep
2520,1,Whole Building,Facility Total HVAC Electric Demand Power [W] !TimeStep
2521,1,Whole Building,Facility Total Electric Demand Power [W] !TimeStep
2522,1,Facility,Facility Thermal Comfort ASHRAE 55 Simple Model Summer or Winter Clothes Not Comfortable Time [hr] !TimeStep
End of Data Dictionary
1,RUNPERIOD 1,  32.13,-110.95,  -7.00, 777.00
2,1, 7, 1, 1, 1, 0.00, 5.00,Monday
7,30.5
1151,1258.415030476354
1152,0.0
1153,80.6
1154,60.8
1155,80.6
1156,60.8
1157,78.67244018754991
1158,78.67244018754991
1159,1.0
1160,0.0
1165,0.0
1166,1260.0
1167,78.67244018754991
1168,0.0
2522,0.0
2520,0.000007509401302081733
2521,48784.43515679031
2,1, 7, 1, 1, 1, 5.00,10.00,Monday
7,30.400000000000003
1151,0.0
1152,0.0
1153,80.6
1154,60.8
1155,80.6
1156,60.8
1157,79.1806189050678
1158,79.1806189050678
1159,0.0
1160,0.0
1165,0.0
1166,0.0
1167,79.1806189050678
1168,0.0
2522,0.0
2520,0.000007477935502597988
2521,48783.91637451404
2,1, 7, 1, 1, 1,10.00,15.00,Monday
7,30.300000000000006
1151,0.0
1152,0.0
1153,80.6
1154,60.8
1155,80.6
1156,60.8
1157,79.50945786893841
1158,79.50945786893841
1159,0.0
1160,0.0
1165,0.0
1166,0.0
1167,79.50945786893841
1168,0.0
2522,0.0
2520,0.000007454674398124381
2521,48783.37404662101
2,1, 7, 1, 1, 1,15.00,20.00,Monday
7,30.200000000000004
1151,0.0
1152,0.0
1153,80.6
1154,60.8
1155,80.6
1156,60.8
1157,79.7868039611521
1158,79.7868039611521
1159,0.0
1160,0.0
1165,0.0
1166,0.0
1167,79.7868039611521
1168,0.0
2522,0.0
2520,0.000007437782217754122
2521,48782.68465439959
2,1, 7, 1, 1, 1,20.00,25.00,Monday
7,30.099999999999999
1151,0.0
1152,0.0
1153,80.6
1154,60.8
1155,80.61950000000002
1156,60.7805
1157,79.93620522938156
1158,79.93620522938156
1159,0.0
1160,0.0
1165,0.0
1166,0.0
1167,79.93620522938156
1168,0.0
2522,0.0
2520,0.000007426284282729739
2521,48781.59781833478
2,1, 7, 1, 1, 1,25.00,30.00,Monday
7,30.0
1151,0.0
1152,0.0
1153,80.6
1154,60.8
1155,80.46784880748166
1156,60.93215119251834
1157,80.0400400679772
1158,80.0400400679772
1159,0.0
1160,0.0
1165,0.0
1166,0.0
1167,80.0400400679772
1168,0.0
2522,0.0
2520,0.000007419242717055552
2521,48780.440523994104
2,1, 7, 1, 1, 1,30.00,35.00,Monday
7,29.9
1151,0.0
1152,0.0
1153,80.6
1154,60.8
1155,80.4548037814564
1156,60.9451962185436
1157,80.11144201962103
1158,80.11144201962103
1159,0.0
1160,0.0
1165,0.0
1166,0.0
1167,80.11144201962103
1168,0.0
2522,0.0
2520,0.000007415900620691405
2521,48779.23581609316
2,1, 7, 1, 1, 1,35.00,40.00,Monday
7,29.799999999999998
1151,0.0
1152,0.0
1153,80.6
1154,60.8
1155,80.44730411309712
1156,60.95269588690289
1157,80.16016895192959
1158,80.16016895192959
1159,0.0
1160,0.0
1165,0.0
1166,0.0
1167,80.16016895192959
1168,0.0
2522,0.0
2520,0.000007415642404747945
2521,48777.985429865286
2,1, 7, 1, 1, 1,40.00,45.00,Monday
7,29.699999999999997
1151,0.0
1152,0.0
1153,80.6
1154,60.8
1155,80.44668116255414
1156,60.95331883744588
1157,80.1926095346819
1158,80.1926095346819
1159,0.0
1160,0.0
1165,0.0
1166,0.0
1167,80.1926095346819
1168,0.0
2522,0.0
2520,0.000007417964147092688
2521,48776.69170219468
2,1, 7, 1, 1, 1,45.00,50.00,Monday
7,29.599999999999999
1151,0.0
1152,0.0
1153,80.6
1154,60.8
1155,80.44790173281979
1156,60.9520982671802
1157,80.21322032462909
1158,80.21322032462909
1159,0.0
1160,0.0
1165,0.0
1166,0.0
1167,80.21322032462909
1168,0.0
2522,0.0
2520,0.000007422451084749027
2521,48775.356977170515
2,1, 7, 1, 1, 1,50.00,55.00,Monday
7,29.5
1151,0.0
1152,0.0
1153,80.6
1154,60.8
1155,80.445871514484
1156,60.95412848551602
1157,80.2248278815932
1158,80.2248278815932
1159,0.0
1160,0.0
1165,0.0
1166,0.0
1167,80.2248278815932
1168,0.0
2522,0.0
2520,0.000007428760281963782
2521,48773.98352382099
2,1, 7, 1, 1, 1,55.00,60.00,Monday
7,29.4
1151,0.0
1152,0.0
1153,80.6
1154,60.8
1155,80.44528515290361
1156,60.95471484709639
1157,80.22965260349584
1158,80.22965260349584
1159,0.0
1160,0.0
1165,0.0
1166,0.0
1167,80.22965260349584
1168,0.0
2522,0.0
2520,0.00000743660711437741
2521,48772.09329346495
2,1, 7, 1, 1, 2, 0.00, 5.00,Monday
7,29.291666666666666
1151,0.0
1152,0.0
1153,80.6
1154,60.8
1155,80.44650384681222
1156,60.95349615318777
1157,80.22934013202854
1158,80.22934013202854
1159,0.0
1160,0.0
1165,0.0
1166,0.0
1167,80.22934013202854
1168,0.0
2522,0.0
2520,0.0000074457546099487289
2521,48770.05968673335
2,1, 7, 1, 1, 2, 5.00,10.00,Monday
7,29.183333333333335
1151,0.0
1152,0.0
1153,80.6
1154,60.8
1155,80.44466126418215
1156,60.955338735817857
1157,80.2249916705043
1158,80.2249916705043
1159,0.0
1160,0.0
1165,0.0
1166,0.0
1167,80.2249916705043
1168,0.0
2522,0.0
2520,0.000007456004958565876
2521,48767.98828207154
2,1, 7, 1, 1, 2,10.00,15.00,Monday
7,29.074999999999997
1151,0.0
1152,0.0
1153,80.6
1154,60.8
1155,80.44489862334986
1156,60.955101376650137
1157,80.21743915572505
1158,80.21743915572505
1159,0.0
1160,0.0
1165,0.0
1166,0.0
1167,80.21743915572505
1168,0.0
2522,0.0
2520,0.000007467192689273442
2521,48765.91520399306
2,1, 7, 1, 1, 2,15.00,20.00,Monday
7,28.96666666666667
1151,0.0
1152,0.0
1153,80.6
1154,60.8
1155,80.44399797196245
1156,60.956002028037548
1157,80.20734202563742
1158,80.20734202563742
1159,0.0
1160,0.0
1165,0.0
1166,0.0
1167,80.20734202563742
1168,0.0
2522,0.0
2520,0.000007479179144984132
2521,48763.840233692565
2,1, 7, 1, 1, 2,20.00,25.00,Monday
7,28.858333333333336
1151,0.0
1152,0.0
1153,80.6
1154,60.8
1155,80.44304196804186
1156,60.95695803195814
1157,80.19509344136867
1158,80.19509344136867
1159,0.0
1160,0.0
1165,0.0
1166,0.0
1167,80.19509344136867
1168,0.0
2522,0.0
2520,0.000007491847977585722
2521,48761.76320998372
2,1, 7, 1, 1, 2,25.00,30.00,Monday
7,28.75
1151,0.0
1152,0.0
1153,80.6
1154,60.8
1155,80.44336470145567
1156,60.95663529854433
1157,80.18100774283458
1158,80.18100774283458
1159,0.0
1160,0.0
1165,0.0
1166,0.0
1167,80.18100774283458
1168,0.0
2522,0.0
2520,0.00000750510145337939
2521,48759.68398061377
2,1, 7, 1, 1, 2,30.00,35.00,Monday
7,28.641666666666667
1151,0.0
1152,0.0
1153,80.6
1154,60.8
1155,80.44461247889865
1156,60.95538752110134
1157,80.16528700287967
1158,80.16528700287967
1159,0.0
1160,0.0
1165,0.0
1166,0.0
1167,80.16528700287967
1168,0.0
2522,0.0
2520,0.000007518857407694994
2521,48757.602442750984
2,1, 7, 1, 1, 2,35.00,40.00,Monday
7,28.533333333333336
1151,0.0
1152,0.0
1153,80.6
1154,60.8
1155,80.44300256454366
1156,60.95699743545633
1157,80.14815089083783
1158,80.14815089083783
1159,0.0
1160,0.0
1165,0.0
1166,0.0
1167,80.14815089083783
1168,0.0
2522,0.0
2520,0.000007533046723674465
2521,48755.51852351538
2,1, 7, 1, 1, 2,40.00,45.00,Monday
7,28.425000000000006
1151,0.0
1152,0.0
1153,80.6
1154,60.8
1155,80.44321928378375
1156,60.956780716216247
1157,80.1297138548648
1158,80.1297138548648
1159,0.0
1160,0.0
1165,0.0
1166,0.0
1167,80.1297138548648
1168,0.0
2522,0.0
2520,0.0000075476112372491309
2521,48753.432201515876
2,1, 7, 1, 1, 2,45.00,50.00,Monday
7,28.316666666666668
